VARIABLES = "X", "Y" 
ZONE t="t:0", N=5, E=4, F=FEPOINT, ET=TRIANGLE
-1.0000000000000000e+00 -1.0000000000000000e+00
1.0000000000000000e+00 -1.0000000000000000e+00
1.0000000000000000e+00 1.0000000000000000e+00
-1.0000000000000000e+00 1.0000000000000000e+00
0.0000000000000000e+00 0.0000000000000000e+00
1 2 5
2 3 5
3 4 5
4 1 5
